LAMMPS 'data.' description 

      3000 atoms
      2000 bonds
      1000 angles

       2 atom types
       1 bond types
       1 angle types

    0.0 35.50      xlo xhi
    0.0 35.50      ylo yhi
    0.0 35.50      zlo zhi


Atoms

     1   1  1  -1.1128000000   1.7750    1.7750    1.7750
     2   1  2  0.5564000000   2.5683    1.3994    2.1569
     3   1  2  0.5564000000   1.0627    1.4291    2.3128
     4   2  1  -1.1128000000   1.7750    1.7750    5.3250
     5   2  2  0.5564000000   2.4154    2.0402    5.9852
     6   2  2  0.5564000000   1.1627    1.2110    5.7975
     7   3  1  -1.1128000000   1.7750    1.7750    8.8750
     8   3  2  0.5564000000   1.5352    1.2753    9.6554
     9   3  2  0.5564000000   1.0759    1.5906    8.2477
     10   4  1  -1.1128000000   1.7750    1.7750    12.4250
     11   4  2  0.5564000000   2.4965    2.0990    11.8858
     12   4  2  0.5564000000   1.4144    1.0410    11.9275
     13   5  1  -1.1128000000   1.7750    1.7750    15.9750
     14   5  2  0.5564000000   1.1696    2.4502    15.6685
     15   5  2  0.5564000000   1.6110    1.0270    15.4007
     16   6  1  -1.1128000000   1.7750    1.7750    19.5250
     17   6  2  0.5564000000   1.8871    2.1621    20.3932
     18   6  2  0.5564000000   1.6116    2.5216    18.9487
     19   7  1  -1.1128000000   1.7750    1.7750    23.0750
     20   7  2  0.5564000000   2.6475    1.6419    23.4456
     21   7  2  0.5564000000   1.2995    0.9715    23.2861
     22   8  1  -1.1128000000   1.7750    1.7750    26.6250
     23   8  2  0.5564000000   1.9785    2.7054    26.5292
     24   8  2  0.5564000000   2.0681    1.3795    25.8041
     25   9  1  -1.1128000000   1.7750    1.7750    30.1750
     26   9  2  0.5564000000   2.7014    1.5659    30.2946
     27   9  2  0.5564000000   1.3263    0.9337    30.2594
     28   10  1  -1.1128000000   1.7750    1.7750    33.7250
     29   10  2  0.5564000000   2.4101    1.9402    34.4218
     30   10  2  0.5564000000   0.9960    1.4563    34.1809
     31   11  1  -1.1128000000   1.7750    5.3250    1.7750
     32   11  2  0.5564000000   2.7240    5.4373    1.7202
     33   11  2  0.5564000000   1.6397    4.3812    1.6898
     34   12  1  -1.1128000000   1.7750    5.3250    5.3250
     35   12  2  0.5564000000   1.9125    5.8908    6.0847
     36   12  2  0.5564000000   0.8321    5.3631    5.1649
     37   13  1  -1.1128000000   1.7750    5.3250    8.8750
     38   13  2  0.5564000000   2.3045    6.0930    8.6604
     39   13  2  0.5564000000   1.0161    5.3870    8.2950
     40   14  1  -1.1128000000   1.7750    5.3250    12.4250
     41   14  2  0.5564000000   2.6287    5.5694    12.0676
     42   14  2  0.5564000000   1.6906    4.3920    12.2283
     43   15  1  -1.1128000000   1.7750    5.3250    15.9750
     44   15  2  0.5564000000   1.9814    5.4290    16.9039
     45   15  2  0.5564000000   1.5470    6.2065    15.6797
     46   16  1  -1.1128000000   1.7750    5.3250    19.5250
     47   16  2  0.5564000000   2.7103    5.4878    19.4029
     48   16  2  0.5564000000   1.6881    4.3733    19.4715
     49   17  1  -1.1128000000   1.7750    5.3250    23.0750
     50   17  2  0.5564000000   2.5457    5.6104    22.5843
     51   17  2  0.5564000000   1.7583    4.3744    22.9641
     52   18  1  -1.1128000000   1.7750    5.3250    26.6250
     53   18  2  0.5564000000   1.2202    5.1394    27.3826
     54   18  2  0.5564000000   1.1602    5.5505    25.9268
     55   19  1  -1.1128000000   1.7750    5.3250    30.1750
     56   19  2  0.5564000000   1.0486    5.6641    29.6519
     57   19  2  0.5564000000   2.0232    4.5090    29.7406
     58   20  1  -1.1128000000   1.7750    5.3250    33.7250
     59   20  2  0.5564000000   1.4368    5.9582    34.3582
     60   20  2  0.5564000000   1.0351    5.1478    33.1442
     61   21  1  -1.1128000000   1.7750    8.8750    1.7750
     62   21  2  0.5564000000   2.6940    8.6410    1.9050
     63   21  2  0.5564000000   1.2913    8.0787    1.9944
     64   22  1  -1.1128000000   1.7750    8.8750    5.3250
     65   22  2  0.5564000000   1.2988    9.4441    5.9296
     66   22  2  0.5564000000   2.0332    9.4514    4.6058
     67   23  1  -1.1128000000   1.7750    8.8750    8.8750
     68   23  2  0.5564000000   1.7128    9.3283    9.7158
     69   23  2  0.5564000000   1.3083    8.0506    9.0117
     70   24  1  -1.1128000000   1.7750    8.8750    12.4250
     71   24  2  0.5564000000   2.7313    8.9174    12.4242
     72   24  2  0.5564000000   1.5762    7.9407    12.3638
     73   25  1  -1.1128000000   1.7750    8.8750    15.9750
     74   25  2  0.5564000000   2.3511    8.5796    16.6801
     75   25  2  0.5564000000   1.1254    8.1774    15.8876
     76   26  1  -1.1128000000   1.7750    8.8750    19.5250
     77   26  2  0.5564000000   1.5608    9.3808    20.3089
     78   26  2  0.5564000000   2.2866    9.4763    18.9838
     79   27  1  -1.1128000000   1.7750    8.8750    23.0750
     80   27  2  0.5564000000   2.5674    9.1433    23.5401
     81   27  2  0.5564000000   1.3606    9.6971    22.8128
     82   28  1  -1.1128000000   1.7750    8.8750    26.6250
     83   28  2  0.5564000000   2.3510    9.5863    26.9052
     84   28  2  0.5564000000   0.9220    9.0954    26.9992
     85   29  1  -1.1128000000   1.7750    8.8750    30.1750
     86   29  2  0.5564000000   2.5117    8.7082    30.7630
     87   29  2  0.5564000000   1.1954    8.1231    30.2971
     88   30  1  -1.1128000000   1.7750    8.8750    33.7250
     89   30  2  0.5564000000   1.7935    9.5729    34.3799
     90   30  2  0.5564000000   0.8439    8.7117    33.5746
     91   31  1  -1.1128000000   1.7750    12.4250    1.7750
     92   31  2  0.5564000000   2.1183    13.3181    1.7490
     93   31  2  0.5564000000   2.1796    11.9904    1.0242
     94   32  1  -1.1128000000   1.7750    12.4250    5.3250
     95   32  2  0.5564000000   2.3198    12.9437    4.7330
     96   32  2  0.5564000000   1.2133    11.9105    4.7453
     97   33  1  -1.1128000000   1.7750    12.4250    8.8750
     98   33  2  0.5564000000   0.9994    12.4387    9.4358
     99   33  2  0.5564000000   1.5224    11.8809    8.1291
     100   34  1  -1.1128000000   1.7750    12.4250    12.4250
     101   34  2  0.5564000000   2.6600    12.1774    12.6927
     102   34  2  0.5564000000   1.2254    11.6943    12.7082
     103   35  1  -1.1128000000   1.7750    12.4250    15.9750
     104   35  2  0.5564000000   2.4032    11.8693    16.4364
     105   35  2  0.5564000000   1.0099    11.8649    15.8441
     106   36  1  -1.1128000000   1.7750    12.4250    19.5250
     107   36  2  0.5564000000   2.6344    12.6190    19.1508
     108   36  2  0.5564000000   1.7361    11.4690    19.5540
     109   37  1  -1.1128000000   1.7750    12.4250    23.0750
     110   37  2  0.5564000000   1.3693    12.5885    23.9264
     111   37  2  0.5564000000   1.1276    12.7283    22.4385
     112   38  1  -1.1128000000   1.7750    12.4250    26.6250
     113   38  2  0.5564000000   2.7285    12.5061    26.6039
     114   38  2  0.5564000000   1.5954    11.5911    26.1908
     115   39  1  -1.1128000000   1.7750    12.4250    30.1750
     116   39  2  0.5564000000   1.9883    12.0835    31.0434
     117   39  2  0.5564000000   0.8688    12.1548    30.0268
     118   40  1  -1.1128000000   1.7750    12.4250    33.7250
     119   40  2  0.5564000000   2.1537    11.8862    34.4197
     120   40  2  0.5564000000   0.9553    11.9849    33.4998
     121   41  1  -1.1128000000   1.7750    15.9750    1.7750
     122   41  2  0.5564000000   2.6602    16.1258    2.1064
     123   41  2  0.5564000000   1.3236    15.5280    2.4910
     124   42  1  -1.1128000000   1.7750    15.9750    5.3250
     125   42  2  0.5564000000   1.3826    16.3571    6.1100
     126   42  2  0.5564000000   2.0723    16.7281    4.8144
     127   43  1  -1.1128000000   1.7750    15.9750    8.8750
     128   43  2  0.5564000000   1.4043    15.8740    9.7517
     129   43  2  0.5564000000   1.4090    16.7988    8.5532
     130   44  1  -1.1128000000   1.7750    15.9750    12.4250
     131   44  2  0.5564000000   2.1491    16.1327    13.2918
     132   44  2  0.5564000000   1.1968    16.7226    12.2735
     133   45  1  -1.1128000000   1.7750    15.9750    15.9750
     134   45  2  0.5564000000   1.8131    16.1593    16.9135
     135   45  2  0.5564000000   1.9123    16.8254    15.5576
     136   46  1  -1.1128000000   1.7750    15.9750    19.5250
     137   46  2  0.5564000000   1.0192    16.4266    19.9006
     138   46  2  0.5564000000   1.8458    16.3238    18.6364
     139   47  1  -1.1128000000   1.7750    15.9750    23.0750
     140   47  2  0.5564000000   2.6168    15.7932    23.4927
     141   47  2  0.5564000000   1.3404    15.1233    23.0303
     142   48  1  -1.1128000000   1.7750    15.9750    26.6250
     143   48  2  0.5564000000   2.7127    16.0795    26.4638
     144   48  2  0.5564000000   1.6241    15.0319    26.5610
     145   49  1  -1.1128000000   1.7750    15.9750    30.1750
     146   49  2  0.5564000000   2.7242    16.0885    30.1261
     147   49  2  0.5564000000   1.6420    15.0302    30.0981
     148   50  1  -1.1128000000   1.7750    15.9750    33.7250
     149   50  2  0.5564000000   1.6221    16.8550    34.0693
     150   50  2  0.5564000000   2.0477    16.1160    32.8184
     151   51  1  -1.1128000000   1.7750    19.5250    1.7750
     152   51  2  0.5564000000   2.3006    19.7885    2.5304
     153   51  2  0.5564000000   1.2972    18.7511    2.0733
     154   52  1  -1.1128000000   1.7750    19.5250    5.3250
     155   52  2  0.5564000000   2.0969    19.1603    6.1494
     156   52  2  0.5564000000   0.8574    19.7354    5.4978
     157   53  1  -1.1128000000   1.7750    19.5250    8.8750
     158   53  2  0.5564000000   1.3262    19.7185    9.6980
     159   53  2  0.5564000000   1.1287    19.7224    8.1971
     160   54  1  -1.1128000000   1.7750    19.5250    12.4250
     161   54  2  0.5564000000   1.6009    20.2913    12.9715
     162   54  2  0.5564000000   1.0968    19.5525    11.7501
     163   55  1  -1.1128000000   1.7750    19.5250    15.9750
     164   55  2  0.5564000000   2.5454    19.7368    16.5021
     165   55  2  0.5564000000   1.0712    19.4112    16.6137
     166   56  1  -1.1128000000   1.7750    19.5250    19.5250
     167   56  2  0.5564000000   2.0666    19.0598    20.3091
     168   56  2  0.5564000000   0.8194    19.4836    19.5628
     169   57  1  -1.1128000000   1.7750    19.5250    23.0750
     170   57  2  0.5564000000   2.5436    19.5412    23.6453
     171   57  2  0.5564000000   1.2951    18.7408    23.3414
     172   58  1  -1.1128000000   1.7750    19.5250    26.6250
     173   58  2  0.5564000000   2.6334    19.9250    26.4858
     174   58  2  0.5564000000   1.8721    18.6296    26.3010
     175   59  1  -1.1128000000   1.7750    19.5250    30.1750
     176   59  2  0.5564000000   2.4536    19.7785    30.8007
     177   59  2  0.5564000000   1.1190    19.0705    30.7035
     178   60  1  -1.1128000000   1.7750    19.5250    33.7250
     179   60  2  0.5564000000   2.7097    19.3337    33.8027
     180   60  2  0.5564000000   1.3505    18.6680    33.7649
     181   61  1  -1.1128000000   1.7750    23.0750    1.7750
     182   61  2  0.5564000000   2.4457    23.0315    2.4565
     183   61  2  0.5564000000   1.0911    22.4751    2.0727
     184   62  1  -1.1128000000   1.7750    23.0750    5.3250
     185   62  2  0.5564000000   2.0038    23.1777    6.2488
     186   62  2  0.5564000000   1.0022    22.5102    5.3305
     187   63  1  -1.1128000000   1.7750    23.0750    8.8750
     188   63  2  0.5564000000   1.6835    23.2601    9.8097
     189   63  2  0.5564000000   1.2394    22.2948    8.7313
     190   64  1  -1.1128000000   1.7750    23.0750    12.4250
     191   64  2  0.5564000000   1.6589    22.7099    13.3022
     192   64  2  0.5564000000   0.9792    23.5836    12.2695
     193   65  1  -1.1128000000   1.7750    23.0750    15.9750
     194   65  2  0.5564000000   2.7286    23.1242    15.9081
     195   65  2  0.5564000000   1.5374    22.3063    15.4565
     196   66  1  -1.1128000000   1.7750    23.0750    19.5250
     197   66  2  0.5564000000   1.7896    23.5697    18.7056
     198   66  2  0.5564000000   2.0307    22.1874    19.2741
     199   67  1  -1.1128000000   1.7750    23.0750    23.0750
     200   67  2  0.5564000000   2.5226    23.5702    22.7402
     201   67  2  0.5564000000   1.9368    22.1752    22.7914
     202   68  1  -1.1128000000   1.7750    23.0750    26.6250
     203   68  2  0.5564000000   1.8436    23.0092    27.5775
     204   68  2  0.5564000000   1.0015    22.5564    26.4037
     205   69  1  -1.1128000000   1.7750    23.0750    30.1750
     206   69  2  0.5564000000   2.7082    23.2595    30.0683
     207   69  2  0.5564000000   1.6937    22.1381    29.9966
     208   70  1  -1.1128000000   1.7750    23.0750    33.7250
     209   70  2  0.5564000000   1.7589    24.0219    33.8644
     210   70  2  0.5564000000   1.4590    22.9589    32.8290
     211   71  1  -1.1128000000   1.7750    26.6250    1.7750
     212   71  2  0.5564000000   2.6790    26.9347    1.7191
     213   71  2  0.5564000000   1.8442    25.6717    1.7235
     214   72  1  -1.1128000000   1.7750    26.6250    5.3250
     215   72  2  0.5564000000   2.7077    26.7674    5.1637
     216   72  2  0.5564000000   1.6616    25.6770    5.2563
     217   73  1  -1.1128000000   1.7750    26.6250    8.8750
     218   73  2  0.5564000000   2.7099    26.8204    8.8118
     219   73  2  0.5564000000   1.7268    25.6695    8.8431
     220   74  1  -1.1128000000   1.7750    26.6250    12.4250
     221   74  2  0.5564000000   2.3602    26.3272    13.1215
     222   74  2  0.5564000000   0.9336    26.2158    12.6272
     223   75  1  -1.1128000000   1.7750    26.6250    15.9750
     224   75  2  0.5564000000   1.1779    26.5247    16.7164
     225   75  2  0.5564000000   1.2300    26.9841    15.2748
     226   76  1  -1.1128000000   1.7750    26.6250    19.5250
     227   76  2  0.5564000000   2.4986    27.2459    19.4407
     228   76  2  0.5564000000   1.1148    26.9407    18.9080
     229   77  1  -1.1128000000   1.7750    26.6250    23.0750
     230   77  2  0.5564000000   1.1348    26.2542    23.6824
     231   77  2  0.5564000000   1.3932    26.4845    22.2086
     232   78  1  -1.1128000000   1.7750    26.6250    26.6250
     233   78  2  0.5564000000   2.4530    27.2376    26.3400
     234   78  2  0.5564000000   1.9169    25.8441    26.0899
     235   79  1  -1.1128000000   1.7750    26.6250    30.1750
     236   79  2  0.5564000000   2.7320    26.6299    30.1581
     237   79  2  0.5564000000   1.5393    25.6975    30.1547
     238   80  1  -1.1128000000   1.7750    26.6250    33.7250
     239   80  2  0.5564000000   1.8488    27.3701    34.3214
     240   80  2  0.5564000000   2.3700    26.8341    33.0049
     241   81  1  -1.1128000000   1.7750    30.1750    1.7750
     242   81  2  0.5564000000   2.0738    30.1600    2.6842
     243   81  2  0.5564000000   0.9304    29.7249    1.7925
     244   82  1  -1.1128000000   1.7750    30.1750    5.3250
     245   82  2  0.5564000000   2.7220    30.3139    5.3384
     246   82  2  0.5564000000   1.6717    29.2446    5.1253
     247   83  1  -1.1128000000   1.7750    30.1750    8.8750
     248   83  2  0.5564000000   2.5807    29.7167    9.1139
     249   83  2  0.5564000000   1.0783    29.6700    9.2943
     250   84  1  -1.1128000000   1.7750    30.1750    12.4250
     251   84  2  0.5564000000   2.7285    30.2583    12.4150
     252   84  2  0.5564000000   1.6158    29.2327    12.3709
     253   85  1  -1.1128000000   1.7750    30.1750    15.9750
     254   85  2  0.5564000000   2.5602    30.6692    15.7394
     255   85  2  0.5564000000   2.0289    29.2578    15.8721
     256   86  1  -1.1128000000   1.7750    30.1750    19.5250
     257   86  2  0.5564000000   2.5969    29.7840    19.8213
     258   86  2  0.5564000000   1.1269    29.4782    19.6282
     259   87  1  -1.1128000000   1.7750    30.1750    23.0750
     260   87  2  0.5564000000   2.7290    30.1201    23.1301
     261   87  2  0.5564000000   1.4798    29.2652    23.1111
     262   88  1  -1.1128000000   1.7750    30.1750    26.6250
     263   88  2  0.5564000000   2.5695    30.4856    26.1909
     264   88  2  0.5564000000   1.5976    29.3253    26.2215
     265   89  1  -1.1128000000   1.7750    30.1750    30.1750
     266   89  2  0.5564000000   2.1686    29.3407    30.4307
     267   89  2  0.5564000000   0.8496    30.0833    30.4017
     268   90  1  -1.1128000000   1.7750    30.1750    33.7250
     269   90  2  0.5564000000   1.8359    31.1263    33.8117
     270   90  2  0.5564000000   1.8972    30.0109    32.7899
     271   91  1  -1.1128000000   1.7750    33.7250    1.7750
     272   91  2  0.5564000000   1.5520    34.5495    1.3429
     273   91  2  0.5564000000   2.1720    33.1925    1.0858
     274   92  1  -1.1128000000   1.7750    33.7250    5.3250
     275   92  2  0.5564000000   2.6014    33.5056    5.7553
     276   92  2  0.5564000000   1.3004    32.8950    5.2793
     277   93  1  -1.1128000000   1.7750    33.7250    8.8750
     278   93  2  0.5564000000   2.2574    34.5518    8.8734
     279   93  2  0.5564000000   2.0760    33.2700    8.0885
     280   94  1  -1.1128000000   1.7750    33.7250    12.4250
     281   94  2  0.5564000000   2.1833    33.5148    13.2649
     282   94  2  0.5564000000   0.9159    33.3047    12.4639
     283   95  1  -1.1128000000   1.7750    33.7250    15.9750
     284   95  2  0.5564000000   2.6559    33.8164    15.6117
     285   95  2  0.5564000000   1.6109    32.7820    15.9722
     286   96  1  -1.1128000000   1.7750    33.7250    19.5250
     287   96  2  0.5564000000   2.6548    33.9271    19.2067
     288   96  2  0.5564000000   1.7082    32.7725    19.4574
     289   97  1  -1.1128000000   1.7750    33.7250    23.0750
     290   97  2  0.5564000000   2.7169    33.7479    23.2441
     291   97  2  0.5564000000   1.4749    32.9200    23.4971
     292   98  1  -1.1128000000   1.7750    33.7250    26.6250
     293   98  2  0.5564000000   2.1223    34.6112    26.5238
     294   98  2  0.5564000000   2.3095    33.1894    26.0388
     295   99  1  -1.1128000000   1.7750    33.7250    30.1750
     296   99  2  0.5564000000   2.7226    33.8186    30.0776
     297   99  2  0.5564000000   1.6230    32.7804    30.1471
     298   100  1  -1.1128000000   1.7750    33.7250    33.7250
     299   100  2  0.5564000000   1.1614    34.2774    34.2093
     300   100  2  0.5564000000   1.3875    33.6426    32.8536
     301   101  1  -1.1128000000   5.3250    1.7750    1.7750
     302   101  2  0.5564000000   6.2224    1.6130    2.0660
     303   101  2  0.5564000000   4.8809    0.9346    1.8874
     304   102  1  -1.1128000000   5.3250    1.7750    5.3250
     305   102  2  0.5564000000   6.2111    1.6024    5.6431
     306   102  2  0.5564000000   4.8887    0.9236    5.3561
     307   103  1  -1.1128000000   5.3250    1.7750    8.8750
     308   103  2  0.5564000000   4.9987    2.6748    8.8826
     309   103  2  0.5564000000   5.1770    1.4736    7.9786
     310   104  1  -1.1128000000   5.3250    1.7750    12.4250
     311   104  2  0.5564000000   5.2595    2.4077    13.1403
     312   104  2  0.5564000000   4.6358    1.1359    12.6061
     313   105  1  -1.1128000000   5.3250    1.7750    15.9750
     314   105  2  0.5564000000   4.5519    1.8669    16.5319
     315   105  2  0.5564000000   5.0869    2.2155    15.1592
     316   106  1  -1.1128000000   5.3250    1.7750    19.5250
     317   106  2  0.5564000000   6.2788    1.8182    19.4570
     318   106  2  0.5564000000   5.1249    0.8392    19.5020
     319   107  1  -1.1128000000   5.3250    1.7750    23.0750
     320   107  2  0.5564000000   5.9479    2.1832    23.6763
     321   107  2  0.5564000000   4.4653    2.0074    23.4258
     322   108  1  -1.1128000000   5.3250    1.7750    26.6250
     323   108  2  0.5564000000   6.1851    1.9069    26.2261
     324   108  2  0.5564000000   5.0867    0.8781    26.3904
     325   109  1  -1.1128000000   5.3250    1.7750    30.1750
     326   109  2  0.5564000000   5.5698    2.6168    29.7907
     327   109  2  0.5564000000   5.2622    1.1795    29.4282
     328   110  1  -1.1128000000   5.3250    1.7750    33.7250
     329   110  2  0.5564000000   6.0386    2.4073    33.8097
     330   110  2  0.5564000000   5.6538    1.1236    33.1054
     331   111  1  -1.1128000000   5.3250    5.3250    1.7750
     332   111  2  0.5564000000   5.2221    4.9723    2.6589
     333   111  2  0.5564000000   4.5498    5.8707    1.6426
     334   112  1  -1.1128000000   5.3250    5.3250    5.3250
     335   112  2  0.5564000000   5.9249    5.9940    5.6548
     336   112  2  0.5564000000   5.7700    4.9595    4.5604
     337   113  1  -1.1128000000   5.3250    5.3250    8.8750
     338   113  2  0.5564000000   5.9094    5.6859    9.5417
     339   113  2  0.5564000000   4.6509    4.8617    9.3722
     340   114  1  -1.1128000000   5.3250    5.3250    12.4250
     341   114  2  0.5564000000   4.8183    4.6771    12.9146
     342   114  2  0.5564000000   4.7438    6.0825    12.3566
     343   115  1  -1.1128000000   5.3250    5.3250    15.9750
     344   115  2  0.5564000000   5.9532    5.9596    16.3197
     345   115  2  0.5564000000   4.4691    5.6791    16.2165
     346   116  1  -1.1128000000   5.3250    5.3250    19.5250
     347   116  2  0.5564000000   6.0327    5.5957    18.9401
     348   116  2  0.5564000000   5.2283    4.3860    19.3662
     349   117  1  -1.1128000000   5.3250    5.3250    23.0750
     350   117  2  0.5564000000   4.9079    5.8569    22.3973
     351   117  2  0.5564000000   5.0581    4.4280    22.8741
     352   118  1  -1.1128000000   5.3250    5.3250    26.6250
     353   118  2  0.5564000000   6.2238    5.4216    26.3102
     354   118  2  0.5564000000   5.1690    4.3806    26.6196
     355   119  1  -1.1128000000   5.3250    5.3250    30.1750
     356   119  2  0.5564000000   6.2781    5.2678    30.2423
     357   119  2  0.5564000000   5.0306    4.4144    30.1567
     358   120  1  -1.1128000000   5.3250    5.3250    33.7250
     359   120  2  0.5564000000   5.4893    6.2679    33.7366
     360   120  2  0.5564000000   6.1465    4.9420    33.4174
     361   121  1  -1.1128000000   5.3250    8.8750    1.7750
     362   121  2  0.5564000000   4.7156    9.6120    1.8153
     363   121  2  0.5564000000   4.7791    8.1249    1.5394
     364   122  1  -1.1128000000   5.3250    8.8750    5.3250
     365   122  2  0.5564000000   5.4620    8.1752    5.9635
     366   122  2  0.5564000000   4.5316    9.3199    5.6231
     367   123  1  -1.1128000000   5.3250    8.8750    8.8750
     368   123  2  0.5564000000   6.2123    9.2340    8.8759
     369   123  2  0.5564000000   5.2263    8.4812    8.0081
     370   124  1  -1.1128000000   5.3250    8.8750    12.4250
     371   124  2  0.5564000000   6.2274    9.1610    12.2833
     372   124  2  0.5564000000   5.3635    7.9205    12.3648
     373   125  1  -1.1128000000   5.3250    8.8750    15.9750
     374   125  2  0.5564000000   5.5519    9.7516    16.2855
     375   125  2  0.5564000000   5.8208    8.7724    15.1627
     376   126  1  -1.1128000000   5.3250    8.8750    19.5250
     377   126  2  0.5564000000   5.8682    9.1881    20.2483
     378   126  2  0.5564000000   4.4363    8.8621    19.8805
     379   127  1  -1.1128000000   5.3250    8.8750    23.0750
     380   127  2  0.5564000000   5.8040    8.5740    23.8471
     381   127  2  0.5564000000   4.6148    8.2417    22.9712
     382   128  1  -1.1128000000   5.3250    8.8750    26.6250
     383   128  2  0.5564000000   6.2093    9.1944    26.4453
     384   128  2  0.5564000000   5.1974    8.1589    26.0028
     385   129  1  -1.1128000000   5.3250    8.8750    30.1750
     386   129  2  0.5564000000   5.3931    9.8252    30.2687
     387   129  2  0.5564000000   5.1301    8.7386    29.2478
     388   130  1  -1.1128000000   5.3250    8.8750    33.7250
     389   130  2  0.5564000000   6.1597    9.2395    33.4306
     390   130  2  0.5564000000   5.4023    7.9352    33.5607
     391   131  1  -1.1128000000   5.3250    12.4250    1.7750
     392   131  2  0.5564000000   5.0919    12.9388    1.0018
     393   131  2  0.5564000000   5.3353    11.5188    1.4668
     394   132  1  -1.1128000000   5.3250    12.4250    5.3250
     395   132  2  0.5564000000   5.4727    13.2595    5.7699
     396   132  2  0.5564000000   5.0460    12.6695    4.4426
     397   133  1  -1.1128000000   5.3250    12.4250    8.8750
     398   133  2  0.5564000000   5.9512    13.1098    8.6401
     399   133  2  0.5564000000   5.6090    11.6588    8.3765
     400   134  1  -1.1128000000   5.3250    12.4250    12.4250
     401   134  2  0.5564000000   5.6942    12.2689    13.2942
     402   134  2  0.5564000000   4.5720    11.8362    12.3748
     403   135  1  -1.1128000000   5.3250    12.4250    15.9750
     404   135  2  0.5564000000   5.0148    12.5560    16.8710
     405   135  2  0.5564000000   4.5301    12.4360    15.4418
     406   136  1  -1.1128000000   5.3250    12.4250    19.5250
     407   136  2  0.5564000000   6.1998    12.7792    19.3654
     408   136  2  0.5564000000   5.3456    11.5504    19.1365
     409   137  1  -1.1128000000   5.3250    12.4250    23.0750
     410   137  2  0.5564000000   5.9550    12.1130    23.7246
     411   137  2  0.5564000000   4.5038    11.9931    23.3104
     412   138  1  -1.1128000000   5.3250    12.4250    26.6250
     413   138  2  0.5564000000   5.5432    12.5843    27.5433
     414   138  2  0.5564000000   4.4284    12.0904    26.6459
     415   139  1  -1.1128000000   5.3250    12.4250    30.1750
     416   139  2  0.5564000000   6.2809    12.4584    30.1380
     417   139  2  0.5564000000   5.1169    11.4908    30.1638
     418   140  1  -1.1128000000   5.3250    12.4250    33.7250
     419   140  2  0.5564000000   4.8799    12.0012    34.4588
     420   140  2  0.5564000000   4.7171    12.3347    32.9911
     421   141  1  -1.1128000000   5.3250    15.9750    1.7750
     422   141  2  0.5564000000   6.2097    16.2480    1.5320
     423   141  2  0.5564000000   5.2198    15.1140    1.3703
     424   142  1  -1.1128000000   5.3250    15.9750    5.3250
     425   142  2  0.5564000000   5.3697    16.8648    5.6751
     426   142  2  0.5564000000   4.3909    15.7659    5.3196
     427   143  1  -1.1128000000   5.3250    15.9750    8.8750
     428   143  2  0.5564000000   6.0780    15.4233    9.0867
     429   143  2  0.5564000000   4.5813    15.3725    8.8653
     430   144  1  -1.1128000000   5.3250    15.9750    12.4250
     431   144  2  0.5564000000   5.3347    16.8699    12.7644
     432   144  2  0.5564000000   4.4045    15.7148    12.4604
     433   145  1  -1.1128000000   5.3250    15.9750    15.9750
     434   145  2  0.5564000000   4.9449    15.5497    16.7437
     435   145  2  0.5564000000   4.5703    16.2851    15.4745
     436   146  1  -1.1128000000   5.3250    15.9750    19.5250
     437   146  2  0.5564000000   6.2765    15.9694    19.6294
     438   146  2  0.5564000000   5.0700    15.0555    19.6000
     439   147  1  -1.1128000000   5.3250    15.9750    23.0750
     440   147  2  0.5564000000   6.2390    15.6992    23.1441
     441   147  2  0.5564000000   4.8218    15.2109    23.3564
     442   148  1  -1.1128000000   5.3250    15.9750    26.6250
     443   148  2  0.5564000000   6.2341    15.8987    26.9148
     444   148  2  0.5564000000   5.0129    15.0716    26.5736
     445   149  1  -1.1128000000   5.3250    15.9750    30.1750
     446   149  2  0.5564000000   5.4383    16.5258    30.9496
     447   149  2  0.5564000000   5.0249    16.5772    29.4942
     448   150  1  -1.1128000000   5.3250    15.9750    33.7250
     449   150  2  0.5564000000   4.6472    15.9349    34.3997
     450   150  2  0.5564000000   4.8619    16.2569    32.9361
     451   151  1  -1.1128000000   5.3250    19.5250    1.7750
     452   151  2  0.5564000000   5.1364    19.7866    0.8738
     453   151  2  0.5564000000   5.1872    18.5778    1.7838
     454   152  1  -1.1128000000   5.3250    19.5250    5.3250
     455   152  2  0.5564000000   5.6298    19.0608    6.1047
     456   152  2  0.5564000000   4.7941    18.8819    4.8551
     457   153  1  -1.1128000000   5.3250    19.5250    8.8750
     458   153  2  0.5564000000   5.3157    20.3395    9.3778
     459   153  2  0.5564000000   4.4191    19.4098    8.5880
     460   154  1  -1.1128000000   5.3250    19.5250    12.4250
     461   154  2  0.5564000000   5.3432    19.1814    13.3182
     462   154  2  0.5564000000   4.3956    19.5534    12.1977
     463   155  1  -1.1128000000   5.3250    19.5250    15.9750
     464   155  2  0.5564000000   4.6936    19.3274    16.6668
     465   155  2  0.5564000000   4.9867    20.3190    15.5610
     466   156  1  -1.1128000000   5.3250    19.5250    19.5250
     467   156  2  0.5564000000   4.8278    20.2027    19.0670
     468   156  2  0.5564000000   6.0252    19.2887    18.9167
     469   157  1  -1.1128000000   5.3250    19.5250    23.0750
     470   157  2  0.5564000000   6.0624    20.1336    23.0295
     471   157  2  0.5564000000   5.5612    18.8166    22.4762
     472   158  1  -1.1128000000   5.3250    19.5250    26.6250
     473   158  2  0.5564000000   6.2810    19.4890    26.6560
     474   158  2  0.5564000000   5.0492    18.6089    26.6555
     475   159  1  -1.1128000000   5.3250    19.5250    30.1750
     476   159  2  0.5564000000   5.7769    19.0371    30.8635
     477   159  2  0.5564000000   4.4725    19.7402    30.5534
     478   160  1  -1.1128000000   5.3250    19.5250    33.7250
     479   160  2  0.5564000000   4.5937    19.1344    34.2034
     480   160  2  0.5564000000   4.9852    19.6671    32.8415
     481   161  1  -1.1128000000   5.3250    23.0750    1.7750